TITLE     = "Visualization of the surface solution"
VARIABLES = "x"
"y"
"z"
ZONE T="Slice: X=14.5454"
 STRANDID=0, SOLUTIONTIME=0
 Nodes=248, Elements=247, ZONETYPE=FELineSeg
 DATAPACKING=POINT
 DT=(SINGLE SINGLE SINGLE )
 1.454543972E+01 1.735703349E+00 2.518721819E+00
 1.454543972E+01 1.798165202E+00 2.585719585E+00
 1.454543972E+01 1.721545935E+00 2.503677130E+00
 1.454543972E+01 1.684456944E+00 2.464251041E+00
 1.454543972E+01 1.890271068E+00 3.030060768E+00
 1.454543972E+01 2.017396688E+00 3.143018484E+00
 1.454543972E+01 1.969165206E+00 3.100548506E+00
 1.454543972E+01 1.903410554E+00 3.041818380E+00
 1.454543972E+01 1.954226971E+00 3.087246418E+00
 1.454543972E+01 1.750000000E+00 -6.875379086E-01
 1.454543972E+01 1.811769605E+00 -4.967320263E-01
 1.454543972E+01 1.750000000E+00 -7.270132303E-01
 1.454543972E+01 1.750000000E+00 -9.093090892E-01
 1.454543972E+01 1.750000000E+00 -6.447541118E-01
 1.454543972E+01 1.820720434E+00 -5.861399770E-01
 1.454543972E+01 1.827833533E+00 -6.571928263E-01
 1.454543972E+01 1.834538817E+00 -7.241622210E-01
 1.454543972E+01 5.459438324E+00 -3.898087442E-01
 1.454543972E+01 5.380734921E+00 -3.921379447E-01
 1.454543972E+01 5.524534702E+00 -3.880046308E-01
 1.454543972E+01 5.314149380E+00 -3.939911127E-01
 1.454543972E+01 5.159064770E+00 -3.984325528E-01
 1.454543972E+01 1.733840823E+00 2.887415886E+00
 1.454543972E+01 1.810883164E+00 2.958084345E+00
 1.454543972E+01 9.086281657E-01 2.438563347E+00
 1.454543972E+01 8.339529037E-01 2.460072279E+00
 1.454543972E+01 7.553259730E-01 2.471544981E+00
 1.454543972E+01 6.896829009E-01 2.481314421E+00
 1.454543972E+01 9.839377999E-01 2.417477131E+00
 1.454543972E+01 1.267779350E+00 2.450275898E+00
 1.454543972E+01 1.346407413E+00 2.524823189E+00
 1.454543972E+01 1.361115217E+00 2.538798332E+00
 1.454543972E+01 1.011834621E+00 2.406826496E+00
 1.454543972E+01 1.131974459E+00 2.348738909E+00
 1.454543972E+01 5.627583981E+00 -6.105298996E-01
 1.454543972E+01 5.686592102E+00 -6.057305932E-01
 1.454543972E+01 4.905379295E+00 -6.693871021E-01
 1.454543972E+01 4.749106407E+00 -6.821325421E-01
 1.454543972E+01 2.442821503E+00 -8.823907375E-01
 1.454543972E+01 3.910026312E+00 -4.333941638E-01
 1.454543972E+01 3.840317965E+00 -4.357303381E-01
 1.454543972E+01 4.010761261E+00 -4.305215478E-01
 1.454543972E+01 4.138736725E+00 -4.274087548E-01
 1.454543972E+01 3.645694733E+00 -4.413680136E-01
 1.454543972E+01 1.713721752E+00 1.342041135E+00
 1.454543972E+01 4.585103512E+00 -4.149000645E-01
 1.454543972E+01 4.711053848E+00 -4.111102819E-01
 1.454543972E+01 4.785472393E+00 -4.089892507E-01
 1.454543972E+01 4.821830273E+00 -4.078915119E-01
 1.454543972E+01 1.710114717E+00 2.865314960E+00
 1.454543972E+01 1.637601376E+00 2.798319101E+00
 1.454543972E+01 1.618809462E+00 2.780726671E+00
 1.454543972E+01 4.536335945E+00 -4.161122143E-01
 1.454543972E+01 4.373405457E+00 -4.210079908E-01
 1.454543972E+01 5.135872841E+00 -3.990647495E-01
 1.454543972E+01 5.148138523E+00 -3.987453878E-01
 1.454543972E+01 1.557840347E+00 2.723719835E+00
 1.454543972E+01 1.500720143E+00 2.670339108E+00
 1.454543972E+01 3.272814989E+00 -4.514973760E-01
 1.454543972E+01 3.052224874E+00 -4.589712322E-01
 1.454543972E+01 2.339268446E+00 3.193530321E+00
 1.454543972E+01 2.367034435E+00 3.227756977E+00
 1.454543972E+01 2.284454346E+00 3.127431631E+00
 1.454543972E+01 2.301084042E+00 3.147055864E+00
 1.454543972E+01 2.311754942E+00 3.159752131E+00
 1.454543972E+01 2.258286953E+00 3.096494675E+00
 1.454543972E+01 2.244481564E+00 3.080243587E+00
 1.454543972E+01 2.173187256E+00 2.998235226E+00
 1.454543972E+01 2.131939173E+00 2.951357841E+00
 1.454543972E+01 2.179807186E+00 3.005741358E+00
 1.454543972E+01 4.259692192E+00 -4.238032401E-01
 1.454543972E+01 2.456129789E+00 -8.811327815E-01
 1.454543972E+01 2.647043705E+00 -8.631829023E-01
 1.454543972E+01 2.806229830E+00 -8.482087851E-01
 1.454543972E+01 5.627392769E+00 -3.849914968E-01
 1.454543972E+01 5.660926342E+00 -3.840694427E-01
 1.454543972E+01 5.664444923E+00 -4.144511223E-01
 1.454543972E+01 2.041788816E+00 3.164150953E+00
 1.454543972E+01 2.094738245E+00 3.210407972E+00
 1.454543972E+01 2.370357990E+00 3.431504726E+00
 1.454543972E+01 2.383299828E+00 3.440792084E+00
 1.454543972E+01 2.351178885E+00 3.417812824E+00
 1.454543972E+01 2.335005045E+00 3.406106472E+00
 1.454543972E+01 2.945162356E-01 2.489405155E+00
 1.454543972E+01 1.571817249E-01 2.489629269E+00
 1.454543972E+01 1.354007144E-02 2.490072250E+00
 1.454543972E+01 0.000000000E+00 2.490109921E+00
 1.454543972E+01 5.673297405E+00 -4.909289181E-01
 1.454543972E+01 5.678710938E+00 -5.376286507E-01
 1.454543972E+01 5.681400299E+00 -5.608526468E-01
 1.454543972E+01 8.011361957E-01 -1.018977880E+00
 1.454543972E+01 9.503113031E-01 -1.013827682E+00
 1.454543972E+01 1.496004581E+00 -9.730027914E-01
 1.454543972E+01 1.411643505E+00 -9.805176258E-01
 1.454543972E+01 1.316348195E+00 -9.892429709E-01
 1.454543972E+01 1.750000000E+00 -2.798541188E-01
 1.454543972E+01 1.750000000E+00 -3.339706659E-01
 1.454543972E+01 1.750000000E+00 -4.560220540E-01
 1.454543972E+01 1.750000000E+00 -5.029995441E-01
 1.454543972E+01 1.959726691E+00 -4.921171367E-01
 1.454543972E+01 1.888553619E+00 3.028534889E+00
 1.454543972E+01 1.855578542E+00 2.998650312E+00
 1.454543972E+01 1.813303113E+00 2.960315704E+00
 1.454543972E+01 1.157612681E+00 2.345643282E+00
 1.454543972E+01 1.780005097E-01 -1.021848798E+00
 1.454543972E+01 3.421831429E-01 -1.022206545E+00
 1.454543972E+01 7.423295081E-02 -1.021784902E+00
 1.454543972E+01 0.000000000E+00 -1.021684647E+00
 1.454543972E+01 3.424743414E-01 2.489351749E+00
 1.454543972E+01 3.977504969E-01 2.489644051E+00
 1.454543972E+01 1.151237488E+00 2.339544296E+00
 1.454543972E+01 1.840430140E+00 -7.829975486E-01
 1.454543972E+01 1.850754619E+00 -8.861082196E-01
 1.454543972E+01 1.442121983E+00 2.615035534E+00
 1.454543972E+01 1.743707538E+00 1.027247429E+00
 1.454543972E+01 1.737923384E+00 1.128666759E+00
 1.454543972E+01 1.747665167E+00 9.476410747E-01
 1.454543972E+01 1.749158621E+00 8.185420632E-01
 1.454543972E+01 1.749864817E+00 7.307837605E-01
 1.454543972E+01 1.749915957E+00 7.653784156E-01
 1.454543972E+01 2.787662506E+00 -4.673367143E-01
 1.454543972E+01 2.819930792E+00 -4.661445618E-01
 1.454543972E+01 3.016869783E+00 -4.598847330E-01
 1.454543972E+01 3.284951448E+00 -4.511790872E-01
 1.454543972E+01 3.579321384E+00 -4.433845878E-01
 1.454543972E+01 4.944233894E+00 -6.662269235E-01
 1.454543972E+01 1.750000000E+00 -9.483354092E-01
 1.454543972E+01 1.855937481E+00 -9.378685951E-01
 1.454543972E+01 1.651862979E+00 -9.579846263E-01
 1.454543972E+01 1.749989986E+00 3.405187726E-01
 1.454543972E+01 1.749989986E+00 1.461901963E-01
 1.454543972E+01 1.750000000E+00 -1.209063530E-01
 1.454543972E+01 1.749995470E+00 1.691577770E-02
 1.454543972E+01 1.750000000E+00 -6.503608823E-02
 1.454543972E+01 2.427812815E+00 -4.784785211E-01
 1.454543972E+01 3.300027609E+00 -4.505850375E-01
 1.454543972E+01 2.592111349E+00 -4.730958641E-01
 1.454543972E+01 2.732324839E+00 -4.684180021E-01
 1.454543972E+01 2.480987072E+00 -4.764258862E-01
 1.454543972E+01 5.281093121E+00 -6.387656927E-01
 1.454543972E+01 5.245727539E+00 -6.416553259E-01
 1.454543972E+01 5.421362400E+00 -6.273429990E-01
 1.454543972E+01 5.452510357E+00 -6.247964501E-01
 1.454543972E+01 5.436450958E+00 -6.261085868E-01
 1.454543972E+01 5.097095013E+00 -6.537685990E-01
 1.454543972E+01 5.030438423E+00 -6.591913700E-01
 1.454543972E+01 5.578673840E+00 -6.145244241E-01
 1.454543972E+01 1.116765976E+00 -1.004396439E+00
 1.454543972E+01 1.129750848E+00 -1.003557563E+00
 1.454543972E+01 1.125112414E+00 -1.003919244E+00
 1.454543972E+01 1.482344627E+00 2.012738466E+00
 1.454543972E+01 1.535695672E+00 1.923392892E+00
 1.454543972E+01 1.607319355E+00 1.761614680E+00
 1.454543972E+01 1.612622738E+00 1.749938726E+00
 1.454543972E+01 5.275444984E-01 2.490211487E+00
 1.454543972E+01 6.477966905E-01 2.483737946E+00
 1.454543972E+01 1.630537152E+00 -9.600955844E-01
 1.454543972E+01 2.497992754E+00 3.407783270E+00
 1.454543972E+01 2.462354660E+00 3.353129625E+00
 1.454543972E+01 3.526516199E+00 -4.441387057E-01
 1.454543972E+01 2.501129627E+00 3.412409782E+00
 1.454543972E+01 2.529821396E+00 3.497259617E+00
 1.454543972E+01 1.940685391E+00 2.739565849E+00
 1.454543972E+01 1.951302409E+00 2.751100540E+00
 1.454543972E+01 1.929018140E+00 2.726938009E+00
 1.454543972E+01 2.047700882E+00 2.857378006E+00
 1.454543972E+01 2.007996082E+00 2.813390970E+00
 1.454543972E+01 1.707412124E+00 1.373178005E+00
 1.454543972E+01 1.716552019E+00 1.318654537E+00
 1.454543972E+01 2.124241114E+00 2.942789555E+00
 1.454543972E+01 4.047500134E+00 -7.393618226E-01
 1.454543972E+01 4.505075455E+00 -7.020297050E-01
 1.454543972E+01 4.037739277E+00 -7.401524782E-01
 1.454543972E+01 4.975327969E+00 -4.037302136E-01
 1.454543972E+01 1.896910429E+00 -9.339752197E-01
 1.454543972E+01 2.089681864E+00 -9.155741334E-01
 1.454543972E+01 3.420746565E+00 -7.905604839E-01
 1.454543972E+01 3.979310036E+00 -7.449221611E-01
 1.454543972E+01 4.085108280E+00 -7.362954021E-01
 1.454543972E+01 3.765554905E+00 -7.623723149E-01
 1.454543972E+01 3.434941530E+00 -7.893912792E-01
 1.454543972E+01 3.733471155E+00 -7.650035024E-01
 1.454543972E+01 2.149462700E+00 -9.099537134E-01
 1.454543972E+01 2.269530535E+00 -8.986307383E-01
 1.454543972E+01 4.739770889E+00 -6.828896999E-01
 1.454543972E+01 4.530976772E+00 -6.999302506E-01
 1.454543972E+01 5.153176308E+00 -6.491878033E-01
 1.454543972E+01 1.611708999E+00 2.386877775E+00
 1.454543972E+01 1.510732889E+00 2.280278683E+00
 1.454543972E+01 1.485594749E+00 2.253607750E+00
 1.454543972E+01 5.668348789E+00 -4.481557906E-01
 1.454543972E+01 2.066663027E+00 -4.899509549E-01
 1.454543972E+01 1.610344172E+00 -9.620523453E-01
 1.454543972E+01 2.427353382E+00 -8.838419914E-01
 1.454543972E+01 1.384175062E+00 2.146940708E+00
 1.454543972E+01 1.434412837E+00 2.082719088E+00
 1.454543972E+01 2.523176670E+00 3.453121424E+00
 1.454543972E+01 1.631684184E+00 2.408214569E+00
 1.454543972E+01 1.427772522E+00 2.192660809E+00
 1.454543972E+01 2.418507814E+00 3.464389801E+00
 1.454543972E+01 2.412779331E+00 3.460429907E+00
 1.454543972E+01 1.669398189E+00 1.563796282E+00
 1.454543972E+01 1.835916042E+00 2.626117706E+00
 1.454543972E+01 2.510703325E+00 3.429696321E+00
 1.454543972E+01 2.525682449E+00 3.474882364E+00
 1.454543972E+01 2.499618292E+00 3.504010201E+00
 1.454543972E+01 2.516344786E+00 3.504740000E+00
 1.454543972E+01 2.474020720E+00 3.496282578E+00
 1.454543972E+01 2.530349255E+00 3.505349159E+00
 1.454543972E+01 2.117179632E+00 3.229398012E+00
 1.454543972E+01 2.306239843E+00 3.383847475E+00
 1.454543972E+01 2.459301710E+00 3.489013195E+00
 1.454543972E+01 1.616110086E+00 1.738603234E+00
 1.454543972E+01 2.265035391E+00 3.351411343E+00
 1.454543972E+01 2.239956141E+00 3.331811428E+00
 1.454543972E+01 2.249292850E+00 3.339147806E+00
 1.454543972E+01 2.072894812E+00 2.885152578E+00
 1.454543972E+01 2.211583138E+00 3.042376041E+00
 1.454543972E+01 2.340186119E+00 -4.804142714E-01
 1.454543972E+01 7.736631036E-01 -1.019762635E+00
 1.454543972E+01 6.194138527E-01 -1.021724105E+00
 1.454543972E+01 5.742381215E-01 -1.022328973E+00
 1.454543972E+01 5.675133467E-01 -1.022349119E+00
 1.454543972E+01 2.269439459E+00 -4.826461375E-01
 1.454543972E+01 2.173437834E+00 -4.856768548E-01
 1.454543972E+01 2.038938522E+00 -4.906455278E-01
 1.454543972E+01 1.749895215E+00 4.489381611E-01
 1.454543972E+01 1.749737263E+00 5.740265250E-01
 1.454543972E+01 1.749980688E+00 3.840379715E-01
 1.454543972E+01 3.678848445E-01 -1.022313237E+00
 1.454543972E+01 2.839339972E+00 -8.450720906E-01
 1.454543972E+01 3.410162926E+00 -7.915338278E-01
 1.454543972E+01 3.318616867E+00 -8.000587821E-01
 1.454543972E+01 2.376895189E+00 3.240287066E+00
 1.454543972E+01 2.407228470E+00 3.278878689E+00
 1.454543972E+01 1.872207165E+00 2.665442228E+00
 1.454543972E+01 2.461284161E+00 3.351687193E+00
 1.454543972E+01 2.164123774E+00 3.269532204E+00
 1.454543972E+01 2.182789087E+00 3.284724712E+00
 1.454543972E+01 2.452874660E+00 3.484858990E+00
 1.454543972E+01 3.160755157E+00 -8.147246242E-01
 1.454543972E+01 4.289462090E+00 -7.196152210E-01
 1.454543972E+01 4.437261581E+00 -7.075561285E-01
 1.454543972E+01 2.888509512E+00 -8.404353261E-01
 1.454543972E+01 2.416940451E+00 3.291218281E+00
 1.454543972E+01 2.420017958E+00 3.295110226E+00
 1.454543972E+01 3.131733656E+00 -8.174555302E-01
 1.454543972E+01 2.993098736E+00 -8.305690289E-01
 23 24
 50 23
 101 102
 102 103
 7 9
 6 7
 8 5
 78 6
 24 103
 50 51
 51 52
 52 57
 9 8
 239 238
 210 79
 210 238
 79 78
 5 101
 239 215
 25 26
 29 25
 27 28
 114 32
 31 30
 111 104
 114 58
 30 104
 110 155
 58 57
 32 31
 33 29
 109 84
 156 155
 26 27
 84 85
 34 33
 34 111
 28 156
 86 87
 85 86
 110 109
 90 89
 76 77
 36 90
 77 191
 144 142
 146 145
 126 146
 38 185
 172 243
 185 186
 141 187
 243 242
 186 172
 126 37
 35 36
 147 35
 142 140
 37 38
 147 143
 143 144
 140 141
 145 187
 89 88
 88 191
 232 233
 248 244
 171 173
 183 176
 176 175
 182 180
 173 178
 194 184
 184 183
 175 128
 248 247
 231 244
 72 73
 179 242
 181 182
 73 74
 241 247
 233 241
 179 171
 180 178
 74 231
 39 72
 194 39
 177 181
 232 177
 108 107
 221 222
 193 157
 93 94
 193 93
 105 106
 127 129
 220 221
 150 148
 107 105
 94 95
 106 230
 223 230
 92 91
 91 220
 95 149
 148 92
 149 150
 222 223
 157 129
 117 115
 119 120
 116 169
 118 117
 131 130
 228 119
 229 227
 120 118
 130 229
 227 228
 115 116
 45 169
 168 45
 96 132
 97 96
 14 10
 13 127
 12 13
 10 12
 98 97
 99 98
 14 99
 139 137
 225 224
 136 160
 226 100
 122 121
 123 122
 40 42
 224 219
 41 40
 44 125
 59 60
 225 192
 125 160
 137 138
 121 138
 44 41
 136 124
 16 15
 112 17
 17 16
 112 113
 60 123
 192 226
 43 42
 11 100
 124 59
 135 219
 139 135
 43 71
 134 133
 133 131
 132 134
 15 11
 128 113
 203 2
 199 190
 2 1
 188 198
 189 188
 163 164
 166 167
 165 163
 198 4
 4 3
 236 165
 199 195
 190 189
 1 3
 217 166
 203 236
 164 167
 195 196
 154 213
 153 154
 168 202
 151 152
 152 153
 202 213
 196 151
 22 21
 18 19
 20 75
 22 56
 76 75
 19 21
 20 18
 55 56
 53 54
 174 55
 46 53
 174 49
 54 71
 47 46
 48 47
 49 48
 204 197
 69 170
 204 161
 70 218
 66 67
 61 62
 62 234
 234 235
 63 64
 246 237
 209 162
 66 63
 217 170
 70 68
 68 69
 67 218
 162 205
 245 246
 158 159
 65 61
 64 65
 245 235
 161 158
 159 237
 197 205
 200 201
 240 200
 216 214
 212 208
 207 206
 240 212
 214 211
 215 216
 201 81
 211 83
 80 82
 83 82
 81 80
 207 209
 206 208
ZONE T="Slice: X=14.7514"
 STRANDID=0, SOLUTIONTIME=0
 Nodes=248, Elements=247, ZONETYPE=FELineSeg
 DATAPACKING=POINT
 DT=(SINGLE SINGLE SINGLE )
 1.475135994E+01 4.501079559E+00 -7.022968531E-01
 1.475135994E+01 4.613651276E+00 -6.931780577E-01
 1.475135994E+01 4.804788113E+00 -6.777573824E-01
 1.475135994E+01 4.911116123E+00 -6.691813469E-01
 1.475135994E+01 4.767111301E+00 -6.808120012E-01
 1.475135994E+01 2.017719030E+00 -9.205515385E-01
 1.475135994E+01 2.119086504E+00 -9.110675454E-01
 1.475135994E+01 2.234675169E+00 -9.002059102E-01
 1.475135994E+01 2.398473501E+00 -8.849314451E-01
 1.475135994E+01 2.885422945E+00 -8.394535184E-01
 1.475135994E+01 3.126269341E+00 -8.168637156E-01
 1.475135994E+01 3.042049646E+00 -8.247768283E-01
 1.475135994E+01 3.381372213E+00 -7.929803729E-01
 1.475135994E+01 3.228240252E+00 -8.073327541E-01
 1.475135994E+01 2.850627661E+00 -8.427084088E-01
 1.475135994E+01 2.828572989E+00 -8.447635174E-01
 1.475135994E+01 1.750000000E+00 -6.620231867E-01
 1.475135994E+01 1.750000000E+00 -6.194399595E-01
 1.475135994E+01 1.750000000E+00 -6.934428215E-01
 1.475135994E+01 1.818521738E+00 -5.641890168E-01
 1.475135994E+01 1.820643783E+00 -5.853818059E-01
 1.475135994E+01 1.851408601E+00 -5.630601048E-01
 1.475135994E+01 1.836420536E+00 -7.429118752E-01
 1.475135994E+01 1.843278527E+00 -8.114019036E-01
 1.475135994E+01 1.750000000E+00 -4.465741813E-01
 1.475135994E+01 1.750000000E+00 -5.071466565E-01
 1.475135994E+01 1.750000000E+00 -8.061257601E-01
 1.475135994E+01 1.750000000E+00 -9.197638631E-01
 1.475135994E+01 1.750000000E+00 -9.466052055E-01
 1.475135994E+01 1.855747104E+00 -9.359045029E-01
 1.475135994E+01 1.919867992E+00 -9.298115373E-01
 1.475135994E+01 1.724387050E+00 2.879840612E+00
 1.475135994E+01 1.746081233E+00 2.900248766E+00
 1.475135994E+01 1.743065715E+00 2.897406578E+00
 1.475135994E+01 9.918605089E-01 2.414983511E+00
 1.475135994E+01 2.231972218E+00 3.342933416E+00
 1.475135994E+01 2.165183783E+00 3.284309387E+00
 1.475135994E+01 2.164611816E+00 3.283809185E+00
 1.475135994E+01 4.976540565E+00 -6.639106870E-01
 1.475135994E+01 4.952286720E+00 -6.658626199E-01
 1.475135994E+01 5.086491108E+00 -6.550437212E-01
 1.475135994E+01 5.157540798E+00 -6.493028402E-01
 1.475135994E+01 2.242126703E+00 3.351648331E+00
 1.475135994E+01 2.262267590E+00 3.368958473E+00
 1.475135994E+01 2.666616201E+00 3.650413275E+00
 1.475135994E+01 2.674887657E+00 3.650780439E+00
 1.475135994E+01 2.675863743E+00 3.649985790E+00
 1.475135994E+01 2.673257589E+00 3.631019354E+00
 1.475135994E+01 2.675918341E+00 3.650918484E+00
 1.475135994E+01 2.640645027E+00 3.649006367E+00
 1.475135994E+01 2.669639826E+00 3.603950977E+00
 1.475135994E+01 2.634564161E+00 3.647329807E+00
 1.475135994E+01 2.613634586E+00 3.637335777E+00
 1.475135994E+01 2.602276564E+00 3.630594969E+00
 1.475135994E+01 4.216388226E+00 -4.809837043E-01
 1.475135994E+01 4.033814907E+00 -4.870398045E-01
 1.475135994E+01 1.710944057E+00 1.359805226E+00
 1.475135994E+01 1.693717480E+00 1.444815874E+00
 1.475135994E+01 1.722704649E+00 1.262628198E+00
 1.475135994E+01 1.735213876E+00 1.162114263E+00
 1.475135994E+01 1.638351798E+00 2.798879385E+00
 1.475135994E+01 1.627719522E+00 2.788916826E+00
 1.475135994E+01 1.519733429E+00 2.686635971E+00
 1.475135994E+01 1.892811179E+00 3.036952257E+00
 1.475135994E+01 1.825641513E+00 2.974572420E+00
 1.475135994E+01 1.905618906E+00 3.048915148E+00
 1.475135994E+01 1.972705960E+00 3.110579491E+00
 1.475135994E+01 3.356833696E+00 -5.087052584E-01
 1.475135994E+01 4.275923729E+00 -4.792168736E-01
 1.475135994E+01 2.090577364E+00 -5.545551181E-01
 1.475135994E+01 1.949507117E+00 -5.595850348E-01
 1.475135994E+01 4.233944118E-01 2.490138531E+00
 1.475135994E+01 4.791257381E-01 2.490303278E+00
 1.475135994E+01 7.402956486E-01 2.473028183E+00
 1.475135994E+01 6.221914291E-01 2.485818624E+00
 1.475135994E+01 6.669394374E-01 2.483456612E+00
 1.475135994E+01 5.234943390E+00 -6.430756450E-01
 1.475135994E+01 5.366662025E+00 -6.324547529E-01
 1.475135994E+01 5.385146141E+00 -6.309709549E-01
 1.475135994E+01 2.168835700E-01 -1.017373204E+00
 1.475135994E+01 1.426656991E-01 -1.017192125E+00
 1.475135994E+01 9.490152448E-02 -1.017171502E+00
 1.475135994E+01 0.000000000E+00 -1.015588760E+00
 1.475135994E+01 0.000000000E+00 2.490109921E+00
 1.475135994E+01 9.071764946E-01 -1.009426594E+00
 1.475135994E+01 7.090667486E-01 -1.015544057E+00
 1.475135994E+01 1.061297417E+00 -1.002431035E+00
 1.475135994E+01 1.206648707E+00 -9.933056235E-01
 1.475135994E+01 1.157890916E+00 -9.969838858E-01
 1.475135994E+01 9.522361159E-01 -1.007927656E+00
 1.475135994E+01 1.466135621E+00 -9.723730683E-01
 1.475135994E+01 1.359573722E+00 -9.816101789E-01
 1.475135994E+01 1.542186022E+00 -9.660065770E-01
 1.475135994E+01 1.734119296E+00 -9.479865432E-01
 1.475135994E+01 2.302502155E+00 3.403664351E+00
 1.475135994E+01 2.339896679E+00 3.435409546E+00
 1.475135994E+01 2.163118601E+00 3.282486916E+00
 1.475135994E+01 1.496727347E+00 2.664937496E+00
 1.475135994E+01 1.154327750E+00 2.337718248E+00
 1.475135994E+01 1.280795336E+00 2.458851337E+00
 1.475135994E+01 1.175458074E+00 2.358089209E+00
 1.475135994E+01 1.359158158E+00 2.533979654E+00
 1.475135994E+01 1.401030540E+00 2.573756218E+00
 1.475135994E+01 2.119642496E+00 2.930316925E+00
 1.475135994E+01 2.051566601E+00 2.856474161E+00
 1.475135994E+01 2.143496037E+00 2.956207037E+00
 1.475135994E+01 2.177283764E+00 2.993276596E+00
 1.475135994E+01 2.199379206E+00 3.017759800E+00
 1.475135994E+01 2.691102028E-01 2.489304543E+00
 1.475135994E+01 5.676824570E+00 -5.213317275E-01
 1.475135994E+01 5.667446136E+00 -4.403160214E-01
 1.475135994E+01 5.682950020E+00 -5.742465854E-01
 1.475135994E+01 5.686703682E+00 -6.066872478E-01
 1.475135994E+01 1.746509194E+00 9.804339409E-01
 1.475135994E+01 2.628575325E+00 3.532834291E+00
 1.475135994E+01 2.940363646E+00 -5.240462422E-01
 1.475135994E+01 3.383274317E+00 -7.928088903E-01
 1.475135994E+01 3.402234793E+00 -7.912669182E-01
 1.475135994E+01 2.901448496E-02 2.490029097E+00
 1.475135994E+01 2.168785334E-01 2.489410400E+00
 1.475135994E+01 9.014633894E-01 2.440849543E+00
 1.475135994E+01 1.119884372E+00 2.354084015E+00
 1.475135994E+01 8.318829536E-01 2.460463285E+00
 1.475135994E+01 2.553144455E+00 3.429795504E+00
 1.475135994E+01 2.647931576E+00 3.563520670E+00
 1.475135994E+01 1.988570571E+00 3.125191450E+00
 1.475135994E+01 2.033075809E+00 3.165704250E+00
 1.475135994E+01 2.068905354E+00 3.197996855E+00
 1.475135994E+01 2.459355593E+00 3.531819105E+00
 1.475135994E+01 2.449256659E+00 3.523699522E+00
 1.475135994E+01 2.408276081E+00 3.491258860E+00
 1.475135994E+01 4.397496223E+00 -4.752823710E-01
 1.475135994E+01 4.507000923E+00 -4.716369510E-01
 1.475135994E+01 4.567301273E+00 -4.695428610E-01
 1.475135994E+01 2.465450048E+00 -8.787030578E-01
 1.475135994E+01 2.644052267E+00 -8.620381355E-01
 1.475135994E+01 1.603389263E+00 1.772857189E+00
 1.475135994E+01 1.535137892E+00 1.924574614E+00
 1.475135994E+01 1.493575573E+00 1.996129155E+00
 1.475135994E+01 1.610513806E+00 1.753947139E+00
 1.475135994E+01 1.607439399E+00 1.763940454E+00
 1.475135994E+01 2.506101608E+00 3.567442179E+00
 1.475135994E+01 2.496564388E+00 3.560254097E+00
 1.475135994E+01 3.602384806E+00 -5.007612705E-01
 1.475135994E+01 1.954069614E+00 2.751914740E+00
 1.475135994E+01 2.514073610E+00 3.380631208E+00
 1.475135994E+01 2.669617414E+00 3.602821827E+00
 1.475135994E+01 2.668513298E+00 3.600571632E+00
 1.475135994E+01 2.720549107E-01 -1.016883731E+00
 1.475135994E+01 3.536153436E-01 -1.017509222E+00
 1.475135994E+01 1.750000000E+00 -2.752584517E-01
 1.475135994E+01 1.750000000E+00 -3.367180824E-01
 1.475135994E+01 1.750000000E+00 -1.797336042E-01
 1.475135994E+01 4.212159634E+00 -7.256410122E-01
 1.475135994E+01 4.147280693E+00 -7.308562398E-01
 1.475135994E+01 4.396481991E+00 -7.107142210E-01
 1.475135994E+01 3.941311836E+00 -7.475404739E-01
 1.475135994E+01 3.897667885E+00 -7.510527372E-01
 1.475135994E+01 3.715619087E+00 -7.657889724E-01
 1.475135994E+01 4.897738457E+00 -4.585846364E-01
 1.475135994E+01 4.950022697E+00 -4.569510221E-01
 1.475135994E+01 5.017144680E+00 -4.547963440E-01
 1.475135994E+01 5.162715912E+00 -4.498317838E-01
 1.475135994E+01 4.720078945E+00 -4.646477401E-01
 1.475135994E+01 5.433725357E+00 -6.270615458E-01
 1.475135994E+01 5.539728165E+00 -6.185199618E-01
 1.475135994E+01 2.540330410E+00 3.413756132E+00
 1.475135994E+01 2.498760700E+00 3.361360312E+00
 1.475135994E+01 2.563556194E+00 3.443158627E+00
 1.475135994E+01 5.666545868E+00 -4.325403869E-01
 1.475135994E+01 5.654399395E+00 -4.329662025E-01
 1.475135994E+01 5.561158180E+00 -4.362350106E-01
 1.475135994E+01 2.437117815E+00 -8.813357949E-01
 1.475135994E+01 1.750000000E+00 -7.314719260E-02
 1.475135994E+01 1.425183535E+00 2.093348265E+00
 1.475135994E+01 1.458969951E+00 2.229573011E+00
 1.475135994E+01 1.381914616E+00 2.149494171E+00
 1.475135994E+01 3.746991873E+00 -4.962932765E-01
 1.475135994E+01 3.399421453E+00 -5.072938204E-01
 1.475135994E+01 3.835077524E+00 -4.933784306E-01
 1.475135994E+01 3.920026064E+00 -4.905818105E-01
 1.475135994E+01 2.585412979E+00 3.621183395E+00
 1.475135994E+01 1.761046052E+00 2.546764851E+00
 1.475135994E+01 1.856411219E+00 2.647902012E+00
 1.475135994E+01 2.000097513E+00 2.801303864E+00
 1.475135994E+01 2.034874916E+00 2.838639975E+00
 1.475135994E+01 1.902310729E+00 2.696630239E+00
 1.475135994E+01 1.749989986E+00 9.994658828E-02
 1.475135994E+01 1.749995947E+00 7.649274077E-03
 1.475135994E+01 6.076362729E-01 -1.016704798E+00
 1.475135994E+01 4.710174501E-01 -1.017514825E+00
 1.475135994E+01 4.447139800E-01 -1.017509818E+00
 1.475135994E+01 2.616347551E+00 3.514872551E+00
 1.475135994E+01 2.632289648E+00 3.538887024E+00
 1.475135994E+01 2.608932972E+00 3.504065752E+00
 1.475135994E+01 2.606187344E+00 3.500374079E+00
 1.475135994E+01 3.333964109E+00 -5.096203089E-01
 1.475135994E+01 1.496117592E+00 2.268497705E+00
 1.475135994E+01 2.585825920E+00 3.472876310E+00
 1.475135994E+01 2.409679890E+00 3.255175829E+00
 1.475135994E+01 2.409952879E+00 3.255489826E+00
 1.475135994E+01 2.410483122E+00 3.256107569E+00
 1.475135994E+01 2.365818024E+00 3.204597712E+00
 1.475135994E+01 5.260704517E+00 -4.463416636E-01
 1.475135994E+01 2.340059280E+00 3.175405741E+00
 1.475135994E+01 2.451318979E+00 3.304095507E+00
 1.475135994E+01 2.465296984E+00 3.321146727E+00
 1.475135994E+01 2.239235163E+00 3.061667442E+00
 1.475135994E+01 2.276410818E+00 3.103502750E+00
 1.475135994E+01 2.550785065E+00 3.598719835E+00
 1.475135994E+01 2.508532524E+00 3.569067955E+00
 1.475135994E+01 1.526163220E+00 2.299930573E+00
 1.475135994E+01 1.587941766E+00 2.364569902E+00
 1.475135994E+01 1.646145701E+00 2.425765038E+00
 1.475135994E+01 1.665224910E+00 1.580114722E+00
 1.475135994E+01 2.099429846E+00 3.225653410E+00
 1.475135994E+01 2.366793394E+00 3.457437515E+00
 1.475135994E+01 2.355042934E+00 3.447954655E+00
 1.475135994E+01 1.750030160E+00 7.920414805E-01
 1.475135994E+01 1.740203261E+00 1.085533977E+00
 1.475135994E+01 1.749978423E+00 7.945658565E-01
 1.475135994E+01 2.420334101E+00 -5.429238677E-01
 1.475135994E+01 2.488568068E+00 -5.403506756E-01
 1.475135994E+01 2.943489552E+00 -5.239228010E-01
 1.475135994E+01 3.156057119E+00 -5.161198378E-01
 1.475135994E+01 5.518234730E+00 -4.376069903E-01
 1.475135994E+01 5.377022743E+00 -4.425764978E-01
 1.475135994E+01 6.911447644E-01 -1.015789390E+00
 1.475135994E+01 2.297427416E+00 -5.472053885E-01
 1.475135994E+01 2.122956753E+00 -5.534448624E-01
 1.475135994E+01 2.111329794E+00 -5.538291931E-01
 1.475135994E+01 1.749722481E+00 6.120438576E-01
 1.475135994E+01 1.750027299E+00 7.905109525E-01
 1.475135994E+01 1.749934793E+00 4.221061766E-01
 1.475135994E+01 1.749812841E+00 5.173161030E-01
 1.475135994E+01 2.938160658E+00 -5.241342187E-01
 1.475135994E+01 2.695401430E+00 -5.329021215E-01
 1.475135994E+01 2.676370144E+00 -5.336527228E-01
 1.475135994E+01 1.749989986E+00 2.716367245E-01
 1.475135994E+01 2.306724310E+00 3.137279987E+00
 1.475135994E+01 1.749989986E+00 2.387477607E-01
 1.475135994E+01 3.613135338E+00 -7.741050124E-01
 1.475135994E+01 3.634730577E+00 -7.723413110E-01
 1.475135994E+01 1.672497272E+00 2.453385830E+00
 1.475135994E+01 1.750733376E+00 2.535920143E+00
 1.475135994E+01 1.869449019E+00 2.661664963E+00
 1.475135994E+01 5.592548847E+00 -6.142578721E-01
 1.475135994E+01 2.562677622E+00 3.606265068E+00
 67 126
 127 126
 34 32
 32 61
 65 33
 61 62
 64 66
 65 64
 67 66
 33 34
 74 123
 102 103
 63 98
 101 100
 103 98
 100 102
 99 101
 63 62
 120 119
 109 120
 75 76
 122 99
 73 75
 72 73
 35 121
 122 35
 123 121
 119 84
 109 72
 76 74
 111 110
 170 111
 112 113
 40 4
 1 156
 77 42
 79 78
 2 1
 113 247
 165 79
 40 39
 39 41
 41 42
 4 3
 154 156
 78 77
 3 5
 165 166
 166 247
 5 2
 110 112
 210 211
 248 210
 216 97
 96 95
 130 129
 217 131
 52 53
 36 37
 43 36
 37 38
 128 127
 128 216
 38 97
 129 143
 142 143
 43 44
 248 182
 54 182
 218 96
 44 95
 218 217
 53 54
 131 130
 49 46
 211 142
 46 45
 135 173
 173 9
 16 15
 136 16
 159 158
 13 14
 10 15
 155 154
 12 10
 118 117
 158 157
 136 135
 6 31
 7 6
 9 8
 117 13
 118 242
 31 30
 157 155
 243 159
 8 7
 242 243
 14 11
 11 12
 81 82
 94 93
 91 92
 228 190
 89 87
 92 88
 87 90
 191 192
 85 86
 150 149
 82 83
 88 89
 150 192
 190 191
 80 81
 149 80
 93 91
 86 228
 90 85
 140 215
 59 60
 233 232
 235 234
 234 239
 114 220
 221 114
 241 188
 215 58
 232 235
 60 220
 241 239
 57 59
 219 233
 58 57
 221 219
 151 152
 25 26
 197 68
 230 229
 153 174
 116 224
 237 238
 133 132
 238 223
 132 69
 223 222
 236 237
 236 116
 18 26
 153 151
 152 25
 231 70
 69 55
 68 179
 20 22
 224 225
 144 179
 230 231
 197 225
 222 229
 55 56
 178 180
 56 181
 178 144
 181 180
 21 20
 30 24
 24 23
 23 21
 189 174
 188 189
 106 104
 177 175
 187 145
 177 176
 244 245
 246 184
 213 212
 198 212
 105 186
 104 105
 214 213
 145 185
 184 183
 183 245
 176 198
 185 186
 187 246
 244 214
 137 138
 141 140
 141 137
 139 175
 138 139
 226 227
 227 204
 170 171
 172 226
 171 172
 146 167
 168 207
 106 107
 108 107
 203 205
 208 108
 199 196
 202 206
 207 206
 240 209
 209 208
 169 199
 169 124
 240 205
 200 201
 115 194
 203 200
 168 146
 124 167
 193 115
 201 202
 45 50
 50 52
 19 17
 70 71
 22 71
 17 18
 27 19
 28 29
 27 28
 29 94
 163 204
 162 163
 164 160
 164 134
 161 162
 134 133
 160 161
 147 51
 196 195
 47 49
 148 125
 48 47
 125 194
 193 195
 147 148
 51 48
