TITLE     = "Visualization of the surface solution"
VARIABLES = "x"
"y"
"z"
ZONE T="Slice: Y=1.76"
 STRANDID=0, SOLUTIONTIME=0
 Nodes=624, Elements=624, ZONETYPE=FELineSeg
 DATAPACKING=POINT
 DT=(SINGLE SINGLE SINGLE )
 3.677465677E+00 1.759999990E+00 -2.668068409E-01
 3.670205593E+00 1.759999990E+00 -2.917553782E-01
 3.679648638E+00 1.759999990E+00 -3.129986525E-01
 1.315835285E+01 1.759999990E+00 -2.378963828E-01
 1.280553532E+01 1.759999990E+00 -2.024623901E-01
 1.297641182E+01 1.759999990E+00 -2.187812626E-01
 1.317153740E+01 1.759999990E+00 -2.392804474E-01
 8.019854546E+00 1.759999990E+00 -5.929044262E-02
 8.168134689E+00 1.759999990E+00 -5.841924250E-02
 8.006701469E+00 1.759999990E+00 -5.952353403E-02
 7.912329197E+00 1.759999990E+00 -6.022495404E-02
 1.037199402E+01 1.759999990E+00 -7.272483408E-02
 1.018636799E+01 1.759999990E+00 -6.894314289E-02
 5.352941036E+00 1.759999990E+00 -8.044201136E-01
 5.294432640E+00 1.759999990E+00 -7.996170521E-01
 5.339739799E+00 1.759999990E+00 -8.034191132E-01
 5.383238316E+00 1.759999990E+00 -8.072296381E-01
 5.403680801E+00 1.759999990E+00 -8.089691997E-01
 5.422183037E+00 1.759999990E+00 -8.100331426E-01
 5.497570992E+00 1.759999990E+00 -8.155763149E-01
 1.345606232E+01 1.759999990E+00 2.735000134E+00
 1.345799351E+01 1.759999990E+00 2.711835146E+00
 4.243658066E+00 1.759999990E+00 -1.774066985E-01
 4.268091679E+00 1.759999990E+00 -1.760939658E-01
 4.285278320E+00 1.759999990E+00 -1.752469987E-01
 1.376635170E+01 1.759999990E+00 -3.184179366E-01
 5.767970085E+00 1.759999990E+00 -1.079044640E-01
 5.808135986E+00 1.759999990E+00 -1.065355763E-01
 5.754286766E+00 1.759999990E+00 -1.084675193E-01
 5.712904453E+00 1.759999990E+00 -1.099032313E-01
 5.699882507E+00 1.759999990E+00 -1.104960293E-01
 5.662151814E+00 1.759999990E+00 -1.118333936E-01
 1.458070183E+01 1.759999990E+00 2.544665337E+00
 1.462708378E+01 1.759999990E+00 2.544828415E+00
 1.472634983E+01 1.759999990E+00 2.545460701E+00
 1.451737404E+01 1.759999990E+00 2.544876575E+00
 1.411624241E+01 1.759999990E+00 2.891660929E+00
 7.163035870E+00 1.759999990E+00 -8.481640220E-01
 7.157646656E+00 1.759999990E+00 -8.480727077E-01
 7.252019405E+00 1.759999990E+00 -8.496757150E-01
 7.262840748E+00 1.759999990E+00 -8.498575091E-01
 7.254567623E+00 1.759999990E+00 -8.497183919E-01
 6.224120617E+00 1.759999990E+00 -8.314993978E-01
 3.892134190E+00 1.759999990E+00 -2.056751847E-01
 3.917753458E+00 1.759999990E+00 -2.029906362E-01
 6.210515022E+00 1.759999990E+00 -8.312456012E-01
 6.153057575E+00 1.759999990E+00 -8.302187920E-01
 6.265873432E+00 1.759999990E+00 -8.323115706E-01
 6.288779736E+00 1.759999990E+00 -8.327200413E-01
 6.099523544E+00 1.759999990E+00 -8.291906714E-01
 6.143526554E+00 1.759999990E+00 -8.300393820E-01
 6.145395279E+00 1.759999990E+00 -8.300740719E-01
 6.303907394E+00 1.759999990E+00 -8.330089450E-01
 5.874589443E+00 1.759999990E+00 -8.246634603E-01
 5.907400608E+00 1.759999990E+00 -8.254132867E-01
 5.926727295E+00 1.759999990E+00 -8.257886767E-01
 1.510843182E+01 1.759999990E+00 2.909641027E+00
 1.525463486E+01 1.759999990E+00 2.906008244E+00
 1.503433037E+01 1.759999990E+00 2.910793066E+00
 1.493890095E+01 1.759999990E+00 2.912296295E+00
 1.104432964E+01 1.759999990E+00 -9.197372943E-02
 1.106426716E+01 1.759999990E+00 -9.255331010E-02
 1.105411339E+01 1.759999990E+00 -9.222852439E-02
 6.608089447E+00 1.759999990E+00 -8.244188875E-02
 6.556624889E+00 1.759999990E+00 -8.368776739E-02
 6.621708870E+00 1.759999990E+00 -8.201766759E-02
 6.544573784E+00 1.759999990E+00 -8.406202495E-02
 1.383681107E+01 1.759999990E+00 2.860641241E+00
 1.387412548E+01 1.759999990E+00 2.865794182E+00
 1.377106285E+01 1.759999990E+00 2.850229740E+00
 1.378205395E+01 1.759999990E+00 2.852003813E+00
 1.379506588E+01 1.759999990E+00 2.853972912E+00
 1.687540245E+01 1.759999990E+00 2.676354170E+00
 1.679763222E+01 1.759999990E+00 2.669064283E+00
 1.697347260E+01 1.759999990E+00 2.685529232E+00
 1.694792557E+01 1.759999990E+00 2.683147669E+00
 4.104931355E+00 1.759999990E+00 -1.864794344E-01
 4.091790676E+00 1.759999990E+00 -1.872626692E-01
 4.130407810E+00 1.759999990E+00 -1.854514033E-01
 4.148112774E+00 1.759999990E+00 -1.838284135E-01
 6.866914272E+00 1.759999990E+00 -8.430610299E-01
 6.840027809E+00 1.759999990E+00 -8.425905108E-01
 4.198054314E+00 1.759999990E+00 -1.802738458E-01
 4.176156998E+00 1.759999990E+00 -1.822108924E-01
 4.224007607E+00 1.759999990E+00 -1.788342595E-01
 8.253812790E+00 1.759999990E+00 -8.662083745E-01
 8.234434128E+00 1.759999990E+00 -8.658980131E-01
 8.243652344E+00 1.759999990E+00 -8.660503626E-01
 5.188969135E+00 1.759999990E+00 -7.869895697E-01
 5.144040585E+00 1.759999990E+00 -7.805071473E-01
 5.292864799E+00 1.759999990E+00 -7.994128466E-01
 5.293226719E+00 1.759999990E+00 -7.994605899E-01
 5.193511963E+00 1.759999990E+00 -7.875563502E-01
 5.242212772E+00 1.759999990E+00 -7.929838300E-01
 5.233472824E+00 1.759999990E+00 -7.918446064E-01
 1.450000000E+01 1.759999990E+00 -7.282519937E-01
 1.450000000E+01 1.759999990E+00 -6.581398845E-01
 1.450000000E+01 1.759999990E+00 -6.979524493E-01
 1.725000381E+01 1.759999990E+00 2.758557558E+00
 1.722982025E+01 1.759999990E+00 2.760440350E+00
 1.724235535E+01 1.759999990E+00 2.759272099E+00
 1.715237999E+01 1.759999990E+00 2.767652750E+00
 6.608098030E+00 1.759999990E+00 -8.385039568E-01
 6.650616646E+00 1.759999990E+00 -8.392379880E-01
 6.587636948E+00 1.759999990E+00 -8.381451964E-01
 1.468112850E+01 1.759999990E+00 2.912910461E+00
 1.460639858E+01 1.759999990E+00 2.912422419E+00
 1.463365841E+01 1.759999990E+00 2.912708282E+00
 1.476570225E+01 1.759999990E+00 2.913290739E+00
 1.474287319E+01 1.759999990E+00 2.913228035E+00
 1.128682518E+01 1.759999990E+00 -1.016249508E-01
 1.146694660E+01 1.759999990E+00 -1.102218181E-01
 1.166001511E+01 1.759999990E+00 -1.206198931E-01
 1.059556389E+01 1.759999990E+00 -7.790941000E-02
 1.058347321E+01 1.759999990E+00 -7.770312577E-02
 1.082088280E+01 1.759999990E+00 -8.429493755E-02
 1.080934429E+01 1.759999990E+00 -8.406118304E-02
 1.746500015E+01 1.759999990E+00 2.731470108E+00
 1.350768948E+01 1.759999990E+00 2.649890184E+00
 1.353189945E+01 1.759999990E+00 2.640754461E+00
 1.355420113E+01 1.759999990E+00 2.632584572E+00
 1.356937981E+01 1.759999990E+00 2.628131390E+00
 1.359930038E+01 1.759999990E+00 2.618838787E+00
 1.364417934E+01 1.759999990E+00 2.608277559E+00
 9.420895576E+00 1.759999990E+00 -8.846719265E-01
 5.189803600E+00 1.759999990E+00 -7.870719433E-01
 5.464403152E+00 1.759999990E+00 -8.137434721E-01
 1.349918461E+01 1.759999990E+00 2.764947891E+00
 1.351282597E+01 1.759999990E+00 2.774421692E+00
 1.352721882E+01 1.759999990E+00 2.784446716E+00
 5.756949902E+00 1.759999990E+00 -8.223948479E-01
 5.707401752E+00 1.759999990E+00 -8.210924268E-01
 5.701121807E+00 1.759999990E+00 -8.210324049E-01
 5.722849846E+00 1.759999990E+00 -8.216053843E-01
 1.448059559E+01 1.759999990E+00 2.909891367E+00
 1.452749348E+01 1.759999990E+00 2.911113024E+00
 1.396961689E+01 1.759999990E+00 2.564929962E+00
 1.397646332E+01 1.759999990E+00 2.564448833E+00
 9.272252083E+00 1.759999990E+00 -8.823887110E-01
 9.400661469E+00 1.759999990E+00 -8.843274713E-01
 9.218949318E+00 1.759999990E+00 -8.815705776E-01
 9.131271362E+00 1.759999990E+00 -8.802339435E-01
 5.090176105E+00 1.759999990E+00 -7.728700042E-01
 5.138223171E+00 1.759999990E+00 -7.798544168E-01
 6.213414669E+00 1.759999990E+00 -9.426137805E-02
 6.192772388E+00 1.759999990E+00 -9.455685318E-02
 6.108734131E+00 1.759999990E+00 -9.796240926E-02
 6.117235184E+00 1.759999990E+00 -9.770864993E-02
 6.100284576E+00 1.759999990E+00 -9.822055697E-02
 6.160449505E+00 1.759999990E+00 -9.550160170E-02
 3.878960848E+00 1.759999990E+00 -2.081083357E-01
 3.863879681E+00 1.759999990E+00 -2.103386819E-01
 6.703048229E+00 1.759999990E+00 -8.003697544E-02
 6.763168335E+00 1.759999990E+00 -7.869394869E-02
 6.690368176E+00 1.759999990E+00 -8.041706681E-02
 9.054217339E+00 1.759999990E+00 -8.790010214E-01
 9.003820419E+00 1.759999990E+00 -8.781582117E-01
 9.444389343E+00 1.759999990E+00 -8.849893808E-01
 8.918769836E+00 1.759999990E+00 -8.767986894E-01
 8.000164986E+00 1.759999990E+00 -8.620855212E-01
 8.023782730E+00 1.759999990E+00 -8.624775410E-01
 8.094309807E+00 1.759999990E+00 -8.636103272E-01
 8.112525940E+00 1.759999990E+00 -8.639118075E-01
 1.138102531E+01 1.759999990E+00 -9.139292240E-01
 1.121818352E+01 1.759999990E+00 -9.122017026E-01
 1.100009251E+01 1.759999990E+00 -9.082694054E-01
 8.881722450E+00 1.759999990E+00 -5.701564252E-02
 8.726646423E+00 1.759999990E+00 -5.675906315E-02
 8.894087791E+00 1.759999990E+00 -5.691050366E-02
 9.064055443E+00 1.759999990E+00 -5.747651309E-02
 9.075129509E+00 1.759999990E+00 -5.742532015E-02
 9.177178383E+00 1.759999990E+00 -5.791775137E-02
 1.606102943E+01 1.759999990E+00 2.862606049E+00
 1.617993355E+01 1.759999990E+00 2.853468657E+00
 1.634757805E+01 1.759999990E+00 2.839980841E+00
 1.629692078E+01 1.759999990E+00 2.844144106E+00
 1.624978256E+01 1.759999990E+00 2.847916842E+00
 1.442479324E+01 1.759999990E+00 2.908476830E+00
 1.438321209E+01 1.759999990E+00 2.906821966E+00
 1.433069801E+01 1.759999990E+00 2.904394388E+00
 1.487651634E+01 1.759999990E+00 2.912705660E+00
 1.744459534E+01 1.759999990E+00 2.740429640E+00
 1.746500015E+01 1.759999990E+00 2.736902952E+00
 1.746500015E+01 1.759999990E+00 2.738529921E+00
 1.746500015E+01 1.759999990E+00 2.734999895E+00
 6.237653255E+00 1.759999990E+00 -9.356615692E-02
 6.504888535E+00 1.759999990E+00 -8.505122364E-02
 6.493112087E+00 1.759999990E+00 -8.541078120E-02
 6.455513000E+00 1.759999990E+00 -8.637220412E-02
 1.604939842E+01 1.759999990E+00 2.863493204E+00
 1.371225548E+01 1.759999990E+00 2.838667870E+00
 1.373127937E+01 1.759999990E+00 2.842373610E+00
 1.368375778E+01 1.759999990E+00 2.831938744E+00
 1.365615368E+01 1.759999990E+00 2.825740576E+00
 1.363465691E+01 1.759999990E+00 2.819813490E+00
 1.360542870E+01 1.759999990E+00 2.812268257E+00
 1.421069622E+01 1.759999990E+00 2.551062107E+00
 1.424182892E+01 1.759999990E+00 2.549677849E+00
 1.415864944E+01 1.759999990E+00 2.553190231E+00
 1.410749722E+01 1.759999990E+00 2.555737495E+00
 1.431507874E+01 1.759999990E+00 2.547744751E+00
 1.434515190E+01 1.759999990E+00 2.546868086E+00
 8.542857170E+00 1.759999990E+00 -8.708446026E-01
 8.468384743E+00 1.759999990E+00 -8.697124124E-01
 8.392736435E+00 1.759999990E+00 -8.684490919E-01
 8.362112999E+00 1.759999990E+00 -8.679701686E-01
 8.552459717E+00 1.759999990E+00 -8.709971905E-01
 6.753762245E+00 1.759999990E+00 -8.410898447E-01
 6.714252949E+00 1.759999990E+00 -8.403820395E-01
 6.696311474E+00 1.759999990E+00 -8.400744200E-01
 8.911498070E+00 1.759999990E+00 -8.766905069E-01
 1.208545685E+01 1.759999990E+00 -1.463351548E-01
 1.229366207E+01 1.759999990E+00 -1.607705653E-01
 1.207647896E+01 1.759999990E+00 -1.457486749E-01
 1.206794453E+01 1.759999990E+00 -1.452300102E-01
 1.256657410E+01 1.759999990E+00 -1.817592680E-01
 1.255473900E+01 1.759999990E+00 -1.808253378E-01
 4.884269714E+00 1.759999990E+00 -7.350922227E-01
 3.750044107E+00 1.759999990E+00 -3.768861592E-01
 3.759084702E+00 1.759999990E+00 -3.809915483E-01
 3.790111780E+00 1.759999990E+00 -3.978852928E-01
 3.824211836E+00 1.759999990E+00 -4.158223867E-01
 3.706315994E+00 1.759999990E+00 -3.452544510E-01
 3.701751947E+00 1.759999990E+00 -3.412840068E-01
 3.704886436E+00 1.759999990E+00 -3.443429768E-01
 7.945103168E+00 1.759999990E+00 -8.611919284E-01
 8.411767006E+00 1.759999990E+00 -5.732829496E-02
 8.295540810E+00 1.759999990E+00 -5.766713992E-02
 8.421145439E+00 1.759999990E+00 -5.723115057E-02
 8.430674553E+00 1.759999990E+00 -5.709174275E-02
 8.567851067E+00 1.759999990E+00 -5.690412968E-02
 3.832001686E+00 1.759999990E+00 -4.203929603E-01
 4.505099773E+00 1.759999990E+00 -6.481524706E-01
 4.553920269E+00 1.759999990E+00 -6.612256765E-01
 4.482038975E+00 1.759999990E+00 -6.428080797E-01
 4.437076569E+00 1.759999990E+00 -6.285969615E-01
 5.085485935E+00 1.759999990E+00 -7.723063231E-01
 5.037007332E+00 1.759999990E+00 -7.645887733E-01
 5.607083321E+00 1.759999990E+00 -8.185926676E-01
 5.636715412E+00 1.759999990E+00 -8.190748692E-01
 5.658670425E+00 1.759999990E+00 -8.200774193E-01
 1.593485641E+01 1.759999990E+00 2.596408367E+00
 1.602031898E+01 1.759999990E+00 2.602795362E+00
 1.591764355E+01 1.759999990E+00 2.595141411E+00
 1.584067535E+01 1.759999990E+00 2.589577913E+00
 3.747200489E+00 1.759999990E+00 -2.321459949E-01
 3.715480089E+00 1.759999990E+00 -2.430689931E-01
 6.405181885E+00 1.759999990E+00 -8.775433898E-02
 6.443643570E+00 1.759999990E+00 -8.674722165E-02
 4.802384377E+00 1.759999990E+00 -7.186946273E-01
 4.715597630E+00 1.759999990E+00 -7.020217776E-01
 4.769192696E+00 1.759999990E+00 -7.120766044E-01
 1.420524788E+01 1.759999990E+00 2.897857666E+00
 1.412304306E+01 1.759999990E+00 2.892271519E+00
 1.420829678E+01 1.759999990E+00 2.898074627E+00
 1.421688271E+01 1.759999990E+00 2.898584366E+00
 4.708420753E+00 1.759999990E+00 -7.001563907E-01
 4.639406681E+00 1.759999990E+00 -6.835702658E-01
 7.379026890E+00 1.759999990E+00 -6.684923917E-02
 1.347256374E+01 1.759999990E+00 2.748019934E+00
 1.348307419E+01 1.759999990E+00 2.752336264E+00
 5.367469311E+00 1.759999990E+00 -1.232704222E-01
 7.361777782E+00 1.759999990E+00 -8.515335917E-01
 7.339327335E+00 1.759999990E+00 -8.511434197E-01
 7.434494972E+00 1.759999990E+00 -8.527437449E-01
 3.891275406E+00 1.759999990E+00 -4.465025067E-01
 3.847014189E+00 1.759999990E+00 -4.280351996E-01
 4.202295303E+00 1.759999990E+00 -5.587076545E-01
 4.294915676E+00 1.759999990E+00 -5.884097815E-01
 4.275222778E+00 1.759999990E+00 -5.823053718E-01
 4.265795231E+00 1.759999990E+00 -5.796551704E-01
 4.983499050E+00 1.759999990E+00 -7.561603189E-01
 4.985045910E+00 1.759999990E+00 -7.564033866E-01
 4.985521793E+00 1.759999990E+00 -7.564821839E-01
 4.939285278E+00 1.759999990E+00 -7.474548817E-01
 8.118722916E+00 1.759999990E+00 -8.640074134E-01
 1.127353954E+01 1.759999990E+00 -1.011083499E-01
 1.279139328E+01 1.759999990E+00 -2.011794299E-01
 7.506657124E+00 1.759999990E+00 -6.482098997E-02
 7.622111797E+00 1.759999990E+00 -6.341872364E-02
 7.495913982E+00 1.759999990E+00 -6.510718167E-02
 7.388219833E+00 1.759999990E+00 -6.657382101E-02
 1.447852612E+01 1.759999990E+00 -4.775406122E-01
 1.439267349E+01 1.759999990E+00 -4.541798532E-01
 1.450000000E+01 1.759999990E+00 -4.833779335E-01
 1.450000000E+01 1.759999990E+00 -5.183432698E-01
 6.285777092E+00 1.759999990E+00 -9.250601381E-02
 6.304600239E+00 1.759999990E+00 -9.213617444E-02
 6.257448673E+00 1.759999990E+00 -9.329679608E-02
 6.327159882E+00 1.759999990E+00 -9.151589125E-02
 3.775873184E+00 1.759999990E+00 -2.271093875E-01
 4.474404812E+00 1.759999990E+00 -1.648662984E-01
 4.488021374E+00 1.759999990E+00 -1.638769358E-01
 4.435615540E+00 1.759999990E+00 -1.667801291E-01
 4.418234348E+00 1.759999990E+00 -1.676596552E-01
 1.565373707E+01 1.759999990E+00 2.889430285E+00
 1.576761532E+01 1.759999990E+00 2.882988453E+00
 1.559106445E+01 1.759999990E+00 2.892795324E+00
 1.553937531E+01 1.759999990E+00 2.894967556E+00
 1.638863182E+01 1.759999990E+00 2.836606741E+00
 1.645265770E+01 1.759999990E+00 2.831214666E+00
 1.540774918E+01 1.759999990E+00 2.900834560E+00
 1.525704098E+01 1.759999990E+00 2.905943871E+00
 7.362583637E+00 1.759999990E+00 -6.716409326E-02
 7.634025574E+00 1.759999990E+00 -6.315109134E-02
 5.809092999E+00 1.759999990E+00 -8.234366775E-01
 5.767437935E+00 1.759999990E+00 -8.226025105E-01
 5.598492146E+00 1.759999990E+00 -8.184434175E-01
 5.571228504E+00 1.759999990E+00 -8.178056479E-01
 7.729856968E+00 1.759999990E+00 -8.576652408E-01
 7.787961006E+00 1.759999990E+00 -8.586139083E-01
 1.573387814E+01 1.759999990E+00 2.582405329E+00
 1.569568348E+01 1.759999990E+00 2.579947710E+00
 1.565708637E+01 1.759999990E+00 2.577743053E+00
 6.345161915E+00 1.759999990E+00 -8.337464929E-01
 4.918787956E+00 1.759999990E+00 -7.430057526E-01
 4.853115559E+00 1.759999990E+00 -7.302311063E-01
 6.077987194E+00 1.759999990E+00 -8.287709355E-01
 5.459673882E+00 1.759999990E+00 -8.132550716E-01
 5.479619026E+00 1.759999990E+00 -8.149778247E-01
 1.450000000E+01 1.759999990E+00 -9.229568839E-01
 1.741826248E+01 1.759999990E+00 2.727101564E+00
 1.746500015E+01 1.759999990E+00 2.732671976E+00
 1.395602417E+01 1.759999990E+00 -9.472540021E-01
 1.394895935E+01 1.759999990E+00 -9.472069144E-01
 1.396860695E+01 1.759999990E+00 -9.473338723E-01
 1.377011776E+01 1.759999990E+00 -9.453915954E-01
 5.859324932E+00 1.759999990E+00 -1.047745496E-01
 5.826733112E+00 1.759999990E+00 -1.058680266E-01
 5.892003059E+00 1.759999990E+00 -1.036988944E-01
 1.591275978E+01 1.759999990E+00 2.873494625E+00
 1.588825035E+01 1.759999990E+00 2.875193119E+00
 9.649719238E+00 1.759999990E+00 -6.144386157E-02
 9.665621758E+00 1.759999990E+00 -6.153966486E-02
 9.510219574E+00 1.759999990E+00 -6.004848704E-02
 9.817391396E+00 1.759999990E+00 -6.336727738E-02
 9.983513832E+00 1.759999990E+00 -6.577593088E-02
 1.349108696E+01 1.759999990E+00 2.661347628E+00
 1.643838501E+01 1.759999990E+00 2.636766672E+00
 1.637591171E+01 1.759999990E+00 2.631408691E+00
 1.640488243E+01 1.759999990E+00 2.633864880E+00
 4.310009003E+00 1.759999990E+00 -1.733183861E-01
 4.609287739E+00 1.759999990E+00 -6.759976149E-01
 4.628950596E+00 1.759999990E+00 -6.805538535E-01
 3.936083555E+00 1.759999990E+00 -4.658375084E-01
 3.998977184E+00 1.759999990E+00 -4.895712137E-01
 3.955635548E+00 1.759999990E+00 -4.726396501E-01
 9.566589355E+00 1.759999990E+00 -8.869659305E-01
 6.914021015E+00 1.759999990E+00 -8.438671231E-01
 6.954350948E+00 1.759999990E+00 -8.445867896E-01
 7.018821239E+00 1.759999990E+00 -8.456837535E-01
 1.447484207E+01 1.759999990E+00 -9.479358196E-01
 1.450000000E+01 1.759999990E+00 -9.477333426E-01
 1.741242409E+01 1.759999990E+00 2.726555824E+00
 4.574967384E+00 1.759999990E+00 -1.595257074E-01
 4.538535118E+00 1.759999990E+00 -1.612780094E-01
 4.524460793E+00 1.759999990E+00 -1.621029079E-01
 4.589182377E+00 1.759999990E+00 -1.587474495E-01
 3.998524189E+00 1.759999990E+00 -1.946022511E-01
 4.008721828E+00 1.759999990E+00 -1.934171617E-01
 3.994485855E+00 1.759999990E+00 -1.948750466E-01
 5.950893879E+00 1.759999990E+00 -1.016621739E-01
 5.965586662E+00 1.759999990E+00 -1.011078358E-01
 6.021631718E+00 1.759999990E+00 -9.928723425E-02
 6.004283428E+00 1.759999990E+00 -9.988742322E-02
 6.055062771E+00 1.759999990E+00 -9.824988246E-02
 5.910885334E+00 1.759999990E+00 -1.029539555E-01
 1.525587177E+01 1.759999990E+00 2.905978918E+00
 6.982697010E+00 1.759999990E+00 -8.450677991E-01
 7.064772606E+00 1.759999990E+00 -8.464846611E-01
 1.653693962E+01 1.759999990E+00 2.645332098E+00
 1.660639191E+01 1.759999990E+00 2.651535749E+00
 1.656369591E+01 1.759999990E+00 2.647702217E+00
 1.663221931E+01 1.759999990E+00 2.653846025E+00
 1.162140179E+01 1.759999990E+00 -9.177731276E-01
 1.146382332E+01 1.759999990E+00 -9.151640534E-01
 1.175388908E+01 1.759999990E+00 -9.192843437E-01
 1.649310112E+01 1.759999990E+00 2.641478062E+00
 1.731281090E+01 1.759999990E+00 2.752714634E+00
 1.739512825E+01 1.759999990E+00 2.745046854E+00
 1.735801506E+01 1.759999990E+00 2.748509169E+00
 8.636631966E+00 1.759999990E+00 -8.723741174E-01
 8.673497200E+00 1.759999990E+00 -8.729418516E-01
 8.902673721E+00 1.759999990E+00 -8.765453100E-01
 8.815814972E+00 1.759999990E+00 -8.752382994E-01
 8.762249947E+00 1.759999990E+00 -8.744263649E-01
 1.433434963E+01 1.759999990E+00 -9.491717219E-01
 1.424586391E+01 1.759999990E+00 -9.493837357E-01
 1.414729977E+01 1.759999990E+00 -9.489580393E-01
 1.645404625E+01 1.759999990E+00 2.831097841E+00
 1.207013035E+01 1.759999990E+00 -9.235914350E-01
 1.224186134E+01 1.759999990E+00 -9.262823462E-01
 1.204410648E+01 1.759999990E+00 -9.233196974E-01
 1.038382816E+01 1.759999990E+00 -7.288073003E-02
 6.850011826E+00 1.759999990E+00 -7.671265304E-02
 6.776580334E+00 1.759999990E+00 -7.828126848E-02
 4.883160591E+00 1.759999990E+00 -1.446653455E-01
 4.822290897E+00 1.759999990E+00 -1.474464238E-01
 4.336970329E+00 1.759999990E+00 -1.719216555E-01
 4.365709782E+00 1.759999990E+00 -1.704537570E-01
 5.388773441E+00 1.759999990E+00 -1.223882511E-01
 5.354268551E+00 1.759999990E+00 -1.239367872E-01
 5.460676193E+00 1.759999990E+00 -1.195928007E-01
 1.442432690E+01 1.759999990E+00 2.545634985E+00
 1.444635868E+01 1.759999990E+00 2.545295477E+00
 1.668724823E+01 1.759999990E+00 2.810703278E+00
 1.651791191E+01 1.759999990E+00 2.825634718E+00
 5.537251949E+00 1.759999990E+00 -1.165628955E-01
 1.099880791E+01 1.759999990E+00 -9.082519412E-01
 1.099788570E+01 1.759999990E+00 -9.082361460E-01
 1.080858040E+01 1.759999990E+00 -9.058145285E-01
 5.554319859E+00 1.759999990E+00 -1.158602908E-01
 5.516710281E+00 1.759999990E+00 -1.174846664E-01
 1.050628376E+01 1.759999990E+00 -9.011292458E-01
 1.063765240E+01 1.759999990E+00 -9.033086896E-01
 1.047115231E+01 1.759999990E+00 -9.006596804E-01
 3.702745438E+00 1.759999990E+00 -2.457444817E-01
 3.680957079E+00 1.759999990E+00 -2.605224848E-01
 1.187781620E+01 1.759999990E+00 -1.331736296E-01
 1.186750984E+01 1.759999990E+00 -1.326000392E-01
 1.645542908E+01 1.759999990E+00 2.830979347E+00
 1.655755806E+01 1.759999990E+00 2.822186947E+00
 1.665070724E+01 1.759999990E+00 2.655521631E+00
 7.748301029E+00 1.759999990E+00 -6.193597987E-02
 7.761321068E+00 1.759999990E+00 -6.166504696E-02
 7.898813248E+00 1.759999990E+00 -6.043329835E-02
 4.372426987E+00 1.759999990E+00 -6.114376783E-01
 4.352615356E+00 1.759999990E+00 -6.052702665E-01
 5.032565594E+00 1.759999990E+00 -7.641461492E-01
 1.230400562E+01 1.759999990E+00 -1.615097523E-01
 6.370810509E+00 1.759999990E+00 -8.342384100E-01
 1.678098679E+01 1.759999990E+00 2.802153587E+00
 5.827511311E+00 1.759999990E+00 -8.237861991E-01
 5.822417736E+00 1.759999990E+00 -8.236260414E-01
 1.039001465E+01 1.759999990E+00 -8.993524313E-01
 1.029981136E+01 1.759999990E+00 -8.981642127E-01
 1.026270390E+01 1.759999990E+00 -8.975284696E-01
 7.534696579E+00 1.759999990E+00 -8.544224501E-01
 7.464953423E+00 1.759999990E+00 -8.532612920E-01
 7.540369034E+00 1.759999990E+00 -8.545171618E-01
 1.394249344E+01 1.759999990E+00 2.874693155E+00
 1.269990921E+01 1.759999990E+00 -9.324571490E-01
 1.258515644E+01 1.759999990E+00 -9.308736324E-01
 1.600895119E+01 1.759999990E+00 2.866445303E+00
 8.578759193E+00 1.759999990E+00 -5.681399256E-02
 9.852577209E+00 1.759999990E+00 -8.913977742E-01
 9.711315155E+00 1.759999990E+00 -8.890092969E-01
 9.691021919E+00 1.759999990E+00 -8.887082338E-01
 9.698040009E+00 1.759999990E+00 -8.888267279E-01
 1.167427540E+01 1.759999990E+00 -1.213231087E-01
 1.741120529E+01 1.759999990E+00 2.726441622E+00
 1.740885544E+01 1.759999990E+00 2.726222515E+00
 1.717980957E+01 1.759999990E+00 2.704824924E+00
 1.717481041E+01 1.759999990E+00 2.704359770E+00
 1.728720665E+01 1.759999990E+00 2.714869022E+00
 1.726608658E+01 1.759999990E+00 2.712901592E+00
 1.358058071E+01 1.759999990E+00 -2.905022502E-01
 1.391993427E+01 1.759999990E+00 -3.449223936E-01
 1.416026020E+01 1.759999990E+00 -3.942410052E-01
 1.414594078E+01 1.759999990E+00 -3.906600177E-01
 1.413519096E+01 1.759999990E+00 -3.883637190E-01
 1.436656189E+01 1.759999990E+00 -4.470582008E-01
 1.297394085E+01 1.759999990E+00 -9.358301163E-01
 4.022723198E+00 1.759999990E+00 -4.984003305E-01
 4.033650875E+00 1.759999990E+00 -5.027855635E-01
 9.999860764E+00 1.759999990E+00 -6.591673940E-02
 1.000930691E+01 1.759999990E+00 -6.597121805E-02
 1.010284710E+01 1.759999990E+00 -8.950352669E-01
 1.012879753E+01 1.759999990E+00 -8.954570889E-01
 9.912510872E+00 1.759999990E+00 -8.922813535E-01
 1.000697517E+01 1.759999990E+00 -8.937865496E-01
 1.316762257E+01 1.759999990E+00 -9.384025931E-01
 1.330932808E+01 1.759999990E+00 -9.399313927E-01
 6.077092648E+00 1.759999990E+00 -8.287510872E-01
 6.075632572E+00 1.759999990E+00 -8.287227750E-01
 1.142070580E+01 1.759999990E+00 -9.145766497E-01
 1.337752819E+01 1.759999990E+00 -2.634645998E-01
 1.338644695E+01 1.759999990E+00 -2.645293474E-01
 1.339566612E+01 1.759999990E+00 -2.657413483E-01
 7.813354015E+00 1.759999990E+00 -8.590343595E-01
 7.868437767E+00 1.759999990E+00 -8.599397540E-01
 7.907809258E+00 1.759999990E+00 -8.605716228E-01
 7.610431194E+00 1.759999990E+00 -8.556808829E-01
 7.543853760E+00 1.759999990E+00 -8.545742035E-01
 7.678738117E+00 1.759999990E+00 -8.568172455E-01
 7.800720692E+00 1.759999990E+00 -8.588295579E-01
 1.073300266E+01 1.759999990E+00 -9.045102000E-01
 6.777768135E+00 1.759999990E+00 -8.415085673E-01
 7.087370396E+00 1.759999990E+00 -8.468673825E-01
 5.974243641E+00 1.759999990E+00 -8.268020153E-01
 5.557306290E+00 1.759999990E+00 -8.173100352E-01
 5.522385597E+00 1.759999990E+00 -8.162831068E-01
 7.034256935E+00 1.759999990E+00 -7.292816043E-02
 6.945055962E+00 1.759999990E+00 -7.463344187E-02
 1.500237274E+01 1.759999990E+00 2.550024748E+00
 1.495945930E+01 1.759999990E+00 2.549207211E+00
 1.512591076E+01 1.759999990E+00 2.553539991E+00
 1.474866104E+01 1.759999990E+00 2.545628071E+00
 1.486294842E+01 1.759999990E+00 2.547186375E+00
 4.976385117E+00 1.759999990E+00 -1.402845532E-01
 5.051597595E+00 1.759999990E+00 -1.369891912E-01
 4.960329533E+00 1.759999990E+00 -1.410625279E-01
 4.900748253E+00 1.759999990E+00 -1.437338889E-01
 6.351020813E+00 1.759999990E+00 -9.091737866E-02
 6.378520966E+00 1.759999990E+00 -9.018196911E-02
 6.394330502E+00 1.759999990E+00 -8.810718358E-02
 7.153801918E+00 1.759999990E+00 -7.046373188E-02
 7.253142834E+00 1.759999990E+00 -6.881663948E-02
 7.137764931E+00 1.759999990E+00 -7.089760154E-02
 7.659420967E+00 1.759999990E+00 -8.564990163E-01
 1.278639221E+01 1.759999990E+00 -9.335029721E-01
 1.293978977E+01 1.759999990E+00 -9.353292584E-01
 6.861773491E+00 1.759999990E+00 -7.639486343E-02
 6.932540894E+00 1.759999990E+00 -7.495915890E-02
 1.247577763E+01 1.759999990E+00 -9.297141433E-01
 1.232326603E+01 1.759999990E+00 -9.274044037E-01
 1.300696659E+01 1.759999990E+00 -9.361472726E-01
 6.787690639E+00 1.759999990E+00 -8.416867852E-01
 6.531854153E+00 1.759999990E+00 -8.371565938E-01
 6.537701130E+00 1.759999990E+00 -8.372598290E-01
 6.542646885E+00 1.759999990E+00 -8.373521566E-01
 5.503032684E+00 1.759999990E+00 -8.155963421E-01
 5.604892254E+00 1.759999990E+00 -1.139912382E-01
 5.646358490E+00 1.759999990E+00 -1.124973446E-01
 5.972418785E+00 1.759999990E+00 -8.267652988E-01
 1.517974281E+01 1.759999990E+00 2.555239439E+00
 1.516726875E+01 1.759999990E+00 2.554744005E+00
 1.535598087E+01 1.759999990E+00 2.561997652E+00
 1.544430447E+01 1.759999990E+00 2.566342831E+00
 1.375692654E+01 1.759999990E+00 2.588521242E+00
 1.380040932E+01 1.759999990E+00 2.582410574E+00
 1.387905312E+01 1.759999990E+00 2.573042631E+00
 1.381496525E+01 1.759999990E+00 2.580291033E+00
 1.630826950E+01 1.759999990E+00 2.625728369E+00
 1.706940079E+01 1.759999990E+00 2.694514275E+00
 1.365168190E+01 1.759999990E+00 2.606719017E+00
 1.364619160E+01 1.759999990E+00 2.607768774E+00
 1.659931755E+01 1.759999990E+00 2.818538427E+00
 1.406795216E+01 1.759999990E+00 2.558176517E+00
 1.399256516E+01 1.759999990E+00 2.563378334E+00
 1.395867348E+01 1.759999990E+00 2.876430035E+00
 1.402486420E+01 1.759999990E+00 2.883810997E+00
 1.390664101E+01 1.759999990E+00 2.870208740E+00
 1.388578224E+01 1.759999990E+00 2.867474318E+00
 1.403409195E+01 1.759999990E+00 2.884597063E+00
 1.407975101E+01 1.759999990E+00 2.888531685E+00
 1.345624733E+01 1.759999990E+00 2.687595129E+00
 1.346712971E+01 1.759999990E+00 2.674903154E+00
 9.337838173E+00 1.759999990E+00 -5.883873627E-02
 9.187869072E+00 1.759999990E+00 -5.789575726E-02
 9.349308968E+00 1.759999990E+00 -5.883037671E-02
 4.652368069E+00 1.759999990E+00 -1.556724459E-01
 5.276206970E+00 1.759999990E+00 -1.270680577E-01
 5.248608589E+00 1.759999990E+00 -1.283863932E-01
 5.263524055E+00 1.759999990E+00 -1.276444793E-01
 4.388490677E+00 1.759999990E+00 -1.691532582E-01
 3.953658104E+00 1.759999990E+00 -1.998937875E-01
 4.046987534E+00 1.759999990E+00 -1.906601638E-01
 4.058586121E+00 1.759999990E+00 -1.899380088E-01
 9.498130798E+00 1.759999990E+00 -6.003979966E-02
 1.370971298E+01 1.759999990E+00 2.596315145E+00
 1.369634628E+01 1.759999990E+00 2.598405838E+00
 4.638424873E+00 1.759999990E+00 -1.563973129E-01
 8.714752197E+00 1.759999990E+00 -5.684215948E-02
 1.623648071E+01 1.759999990E+00 2.619833231E+00
 1.617342186E+01 1.759999990E+00 2.614766598E+00
 1.620683861E+01 1.759999990E+00 2.617419481E+00
 1.356912899E+01 1.759999990E+00 2.800771713E+00
 1.354417515E+01 1.759999990E+00 2.790867090E+00
 1.359051514E+01 1.759999990E+00 2.807207108E+00
 1.734048080E+01 1.759999990E+00 2.719853163E+00
 1.679087448E+01 1.759999990E+00 2.668428898E+00
 1.338677502E+01 1.759999990E+00 -9.410287142E-01
 1.336014366E+01 1.759999990E+00 -9.407222271E-01
 1.359327698E+01 1.759999990E+00 -9.433596134E-01
 1.360893536E+01 1.759999990E+00 -9.435768723E-01
 1.366306400E+01 1.759999990E+00 -9.441315532E-01
 1.393333912E+01 1.759999990E+00 -3.473055065E-01
 1.388163471E+01 1.759999990E+00 2.572727680E+00
 1.611632919E+01 1.759999990E+00 2.610220909E+00
 1.604964066E+01 1.759999990E+00 2.605057478E+00
 3.928976059E+00 1.759999990E+00 -2.013184279E-01
 3.836378098E+00 1.759999990E+00 -2.131724060E-01
 3.816481113E+00 1.759999990E+00 -2.161053270E-01
 1.707366753E+01 1.759999990E+00 2.694911480E+00
 1.710589600E+01 1.759999990E+00 2.771963835E+00
 1.199144459E+01 1.759999990E+00 -9.224956632E-01
 5.975117683E+00 1.759999990E+00 -8.268187642E-01
 6.021105289E+00 1.759999990E+00 -8.276281953E-01
 1.356815815E+01 1.759999990E+00 -2.886513174E-01
 5.081459999E+00 1.759999990E+00 -1.354831457E-01
 5.159945011E+00 1.759999990E+00 -1.321445853E-01
 5.066962242E+00 1.759999990E+00 -1.361704171E-01
 3.796226263E+00 1.759999990E+00 -2.186055928E-01
 7.048082829E+00 1.759999990E+00 -7.250266522E-02
 4.092201710E+00 1.759999990E+00 -5.216746330E-01
 6.400032997E+00 1.759999990E+00 -8.347607851E-01
 6.435281277E+00 1.759999990E+00 -8.354119658E-01